+ 0 0 1 udp 1000 ------- 1 0.0 1.0 0 0
- 0 0 1 udp 1000 ------- 1 0.0 1.0 0 0
r 0.0028 0 1 udp 1000 ------- 1 0.0 1.0 0 0
